
    -----------------------------------------------------------------------
          Psi4: An Open-Source Ab Initio Electronic Structure Package
                               Psi4 1.5 release

                         Git: Rev {HEAD} e9f4d6d 


    D. G. A. Smith, L. A. Burns, A. C. Simmonett, R. M. Parrish,
    M. C. Schieber, R. Galvelis, P. Kraus, H. Kruse, R. Di Remigio,
    A. Alenaizan, A. M. James, S. Lehtola, J. P. Misiewicz, M. Scheurer,
    R. A. Shaw, J. B. Schriber, Y. Xie, Z. L. Glick, D. A. Sirianni,
    J. S. O'Brien, J. M. Waldrop, A. Kumar, E. G. Hohenstein,
    B. P. Pritchard, B. R. Brooks, H. F. Schaefer III, A. Yu. Sokolov,
    K. Patkowski, A. E. DePrince III, U. Bozkaya, R. A. King,
    F. A. Evangelista, J. M. Turney, T. D. Crawford, C. D. Sherrill,
    J. Chem. Phys. 152(18) 184108 (2020). https://doi.org/10.1063/5.0006002

                            Additional Code Authors
    E. T. Seidl, C. L. Janssen, E. F. Valeev, M. L. Leininger,
    J. F. Gonthier, R. M. Richard, H. R. McAlexander, M. Saitow, X. Wang,
    P. Verma, M. H. Lechner, and A. Jiang

             Previous Authors, Complete List of Code Contributors,
                       and Citations for Specific Modules
    https://github.com/psi4/psi4/blob/master/codemeta.json
    https://github.com/psi4/psi4/graphs/contributors
    http://psicode.org/psi4manual/master/introduction.html#citing-psifour

    -----------------------------------------------------------------------


    Psi4 started on: Monday, 03 October 2022 09:02PM

    Process ID: 12
    Host:       chemcompute-node-2.novalocal
    PSIDATADIR: /usr/local/share/psi4
    Memory:     500.0 MiB
    Threads:    1
    
  ==> Input File <==

--------------------------------------------------------------------------
#
#   Psi4 Calculation input file
#   
#
memory 2000 mb

molecule {
 no_com
 0 1
 C      -1.806    -0.323     0.197
 C      -0.676     0.362    -0.013
 C       0.633    -0.329    -0.023
 O       1.680     0.293    -0.153
 H      -1.818    -1.397     0.369
 H      -2.764     0.189     0.208
 H      -0.662     1.436    -0.178
 H       0.611    -1.423     0.097
symmetry c1
}
set {
 basis 6-31G*
 geom_maxiter 200
 reference RHF
 WRITER_FILE_LABEL Psi4
 NORMAL_MODES_WRITE true
}
E, wfn = optimize('B3LYP', return_wfn=True)
wfn.write_molden('Psi4.molden')
oeprop(wfn, 'DIPOLE', 'QUADRUPOLE', 'MULTIPOLE(4)', 'MO_EXTENTS', 'MULLIKEN_CHARGES', 'LOWDIN_CHARGES', 'WIBERG_LOWDIN_INDICES', 'MAYER_INDICES', 'NO_OCCUPATIONS')
print_variables()
scf_e, scf_wfn = frequencies('B3LYP', return_wfn=True, dertype=1)

--------------------------------------------------------------------------

  Memory set to   1.863 GiB by Python driver.

Scratch directory: /scratch/
gradient() will perform analytic gradient computation.

*** tstart() called on chemcompute-node-2.novalocal
*** at Mon Oct  3 21:02:17 2022

   => Loading Basis Set <=

    Name: 6-31G*
    Role: ORBITAL
    Keyword: BASIS
    atoms 1-3 entry C          line   111 file /usr/local/share/psi4/basis/6-31gs.gbs 
    atoms 4   entry O          line   145 file /usr/local/share/psi4/basis/6-31gs.gbs 
    atoms 5-8 entry H          line    44 file /usr/local/share/psi4/basis/6-31gs.gbs 


         ---------------------------------------------------------
                                   SCF
               by Justin Turney, Rob Parrish, Andy Simmonett
                          and Daniel G. A. Smith
                              RKS Reference
                        1 Threads,   1907 MiB Core
         ---------------------------------------------------------

  ==> Geometry <==

    Molecular point group: c1
    Full point group: C1

    Geometry (in Angstrom), charge = 0, multiplicity = 1:

       Center              X                  Y                   Z               Mass       
    ------------   -----------------  -----------------  -----------------  -----------------
         C           -1.806000000000    -0.323000000000     0.197000000000    12.000000000000
         C           -0.676000000000     0.362000000000    -0.013000000000    12.000000000000
         C            0.633000000000    -0.329000000000    -0.023000000000    12.000000000000
         O            1.680000000000     0.293000000000    -0.153000000000    15.994914619570
         H           -1.818000000000    -1.397000000000     0.369000000000     1.007825032230
         H           -2.764000000000     0.189000000000     0.208000000000     1.007825032230
         H           -0.662000000000     1.436000000000    -0.178000000000     1.007825032230
         H            0.611000000000    -1.423000000000     0.097000000000     1.007825032230

  Running in c1 symmetry.

  Rotational constants: A =      1.55519  B =      0.15567  C =      0.14155 [cm^-1]
  Rotational constants: A =  46623.37329  B =   4666.79191  C =   4243.52383 [MHz]
  Nuclear repulsion =  102.765821093820648

  Charge       = 0
  Multiplicity = 1
  Electrons    = 30
  Nalpha       = 15
  Nbeta        = 15

  ==> Algorithm <==

  SCF Algorithm Type is DF.
  DIIS enabled.
  MOM disabled.
  Fractional occupation disabled.
  Guess Type is SAD.
  Energy threshold   = 1.00e-08
  Density threshold  = 1.00e-08
  Integral threshold = 1.00e-12

  ==> Primary Basis <==

  Basis Set: 6-31G*
    Blend: 6-31G*
    Number of shells: 32
    Number of basis functions: 68
    Number of Cartesian functions: 68
    Spherical Harmonics?: false
    Max angular momentum: 2

  ==> DFT Potential <==

   => LibXC <=

    Version 5.1.5
    S. Lehtola, C. Steigemann, M. J. Oliveira, and M. A. Marques, SoftwareX 7, 1 (2018) (10.1016/j.softx.2017.11.002)

   => Composite Functional: B3LYP <= 

    B3LYP Hyb-GGA Exchange-Correlation Functional

    P. J. Stephens, F. J. Devlin, C. F. Chabalowski, and M. J. Frisch, J. Phys. Chem. 98, 11623 (1994) (10.1021/j100096a001)

    Deriv               =              1
    GGA                 =           TRUE
    Meta                =          FALSE

    Exchange Hybrid     =           TRUE
    MP2 Hybrid          =          FALSE

   => Exchange Functionals <=

    0.0800   Slater exchange
    0.7200         Becke 88

   => Exact (HF) Exchange <=

    0.2000               HF 

   => Correlation Functionals <=

    0.1900   Vosko, Wilk & Nusair (VWN5_RPA)
    0.8100   Lee, Yang & Parr

   => LibXC Density Thresholds  <==

    XC_HYB_GGA_XC_B3LYP:  1.00E-15 

   => Molecular Quadrature <=

    Radial Scheme          =       TREUTLER
    Pruning Scheme         =           NONE
    Nuclear Scheme         =       TREUTLER

    BS radius alpha        =              1
    Pruning alpha          =              1
    Radial Points          =             75
    Spherical Points       =            302
    Total Points           =         171211
    Total Blocks           =           1323
    Max Points             =            256
    Max Functions          =             67
    Weights Tolerance      =       1.00E-15

   => Loading Basis Set <=

    Name: (6-31G* AUX)
    Role: JKFIT
    Keyword: DF_BASIS_SCF
    atoms 1-3 entry C          line   121 file /usr/local/share/psi4/basis/cc-pvdz-jkfit.gbs 
    atoms 4   entry O          line   221 file /usr/local/share/psi4/basis/cc-pvdz-jkfit.gbs 
    atoms 5-8 entry H          line    51 file /usr/local/share/psi4/basis/cc-pvdz-jkfit.gbs 

  ==> Integral Setup <==

  DFHelper Memory: AOs need 0.017 GiB; user supplied 1.104 GiB. Using in-core AOs.

  ==> MemDFJK: Density-Fitted J/K Matrices <==

    J tasked:                   Yes
    K tasked:                   Yes
    wK tasked:                   No
    OpenMP threads:               1
    Memory [MiB]:              1130
    Algorithm:                 Core
    Schwarz Cutoff:           1E-12
    Mask sparsity (%):       0.8651
    Fitting Condition:        1E-10

   => Auxiliary Basis Set <=

  Basis Set: (6-31G* AUX)
    Blend: CC-PVDZ-JKFIT
    Number of shells: 132
    Number of basis functions: 424
    Number of Cartesian functions: 424
    Spherical Harmonics?: false
    Max angular momentum: 3

  Cached 100.0% of DFT collocation blocks in 0.293 [GiB].

  Minimum eigenvalue in the overlap matrix is 4.0514560899E-03.
  Reciprocal condition number of the overlap matrix is 6.1180816340E-04.
    Using symmetric orthogonalization.

  ==> Pre-Iterations <==

  SCF Guess: Superposition of Atomic Densities via on-the-fly atomic UHF (no occupation information).

   -------------------------
    Irrep   Nso     Nmo    
   -------------------------
     A         68      68 
   -------------------------
    Total      68      68
   -------------------------

  ==> Iterations <==

                           Total Energy        Delta E     RMS |[F,P]|

   @DF-RKS iter SAD:  -191.25853363476665   -1.91259e+02   0.00000e+00 
   @DF-RKS iter   1:  -191.69651251814352   -4.37979e-01   9.80538e-03 DIIS
   @DF-RKS iter   2:  -191.53779528217706    1.58717e-01   1.36945e-02 DIIS
   @DF-RKS iter   3:  -191.87364794656261   -3.35853e-01   4.25511e-03 DIIS
   @DF-RKS iter   4:  -191.91068688489867   -3.70389e-02   4.52804e-04 DIIS
   @DF-RKS iter   5:  -191.91100767395906   -3.20789e-04   2.33049e-04 DIIS
   @DF-RKS iter   6:  -191.91112357466082   -1.15901e-04   7.46657e-05 DIIS
   @DF-RKS iter   7:  -191.91113621114195   -1.26365e-05   2.86730e-05 DIIS
   @DF-RKS iter   8:  -191.91113797205290   -1.76091e-06   2.77399e-06 DIIS
   @DF-RKS iter   9:  -191.91113798659444   -1.45415e-08   3.93791e-07 DIIS
   @DF-RKS iter  10:  -191.91113798693507   -3.40634e-10   6.07793e-08 DIIS
   @DF-RKS iter  11:  -191.91113798694377   -8.69704e-12   1.23652e-08 DIIS
   @DF-RKS iter  12:  -191.91113798694400   -2.27374e-13   2.63067e-09 DIIS
  Energy and wave function converged.


  ==> Post-Iterations <==

   Electrons on quadrature grid:
      Ntotal   =   30.0000185266 ; deviation = 1.853e-05 

    Orbital Energies [Eh]
    ---------------------

    Doubly Occupied:                                                      

       1A    -19.146751     2A    -10.277607     3A    -10.219780  
       4A    -10.210378     5A     -1.036901     6A     -0.801854  
       7A     -0.647950     8A     -0.577367     9A     -0.480205  
      10A     -0.472651    11A     -0.417034    12A     -0.395732  
      13A     -0.394207    14A     -0.291546    15A     -0.256489  

    Virtual:                                                              

      16A     -0.064273    17A      0.054570    18A      0.106359  
      19A      0.111412    20A      0.150377    21A      0.189007  
      22A      0.259771    23A      0.312909    24A      0.348087  
      25A      0.504843    26A      0.513520    27A      0.555345  
      28A      0.582685    29A      0.616328    30A      0.632901  
      31A      0.659235    32A      0.671439    33A      0.808353  
      34A      0.823074    35A      0.853186    36A      0.866877  
      37A      0.902564    38A      0.945491    39A      0.983904  
      40A      1.055314    41A      1.086830    42A      1.147232  
      43A      1.258915    44A      1.331750    45A      1.434718  
      46A      1.541409    47A      1.541758    48A      1.653821  
      49A      1.763425    50A      1.790345    51A      1.840754  
      52A      1.902272    53A      1.983462    54A      2.047142  
      55A      2.136424    56A      2.156923    57A      2.299071  
      58A      2.395107    59A      2.410143    60A      2.572085  
      61A      2.609919    62A      2.848571    63A      2.922810  
      64A      2.997998    65A      3.829574    66A      4.055974  
      67A      4.144463    68A      4.371344  

    Final Occupation by Irrep:
              A 
    DOCC [    15 ]

  @DF-RKS Final Energy:  -191.91113798694400

   => Energetics <=

    Nuclear Repulsion Energy =            102.7658210938206480
    One-Electron Energy =                -462.8162656390576331
    Two-Electron Energy =                 189.3980735702847653
    DFT Exchange-Correlation Energy =     -21.2587670119917895
    Empirical Dispersion Energy =           0.0000000000000000
    VV10 Nonlocal Energy =                  0.0000000000000000
    Total Energy =                       -191.9111379869439986

Computation Completed


Properties will be evaluated at   0.000000,   0.000000,   0.000000 [a0]

Properties computed using the SCF density matrix

  Nuclear Dipole Moment: [e a0]
     X:    -4.3218      Y:    -1.1168      Z:     0.4498

  Electronic Dipole Moment: [e a0]
     X:     3.1552      Y:     0.7347      Z:    -0.3280

  Dipole Moment: [e a0]
     X:    -1.1666      Y:    -0.3821      Z:     0.1217     Total:     1.2336

  Dipole Moment: [D]
     X:    -2.9651      Y:    -0.9712      Z:     0.3094     Total:     3.1354


*** tstop() called on chemcompute-node-2.novalocal at Mon Oct  3 21:02:23 2022
Module time:
	user time   =       5.64 seconds =       0.09 minutes
	system time =       0.27 seconds =       0.00 minutes
	total time  =          6 seconds =       0.10 minutes
Total time:
	user time   =       5.64 seconds =       0.09 minutes
	system time =       0.27 seconds =       0.00 minutes
	total time  =          6 seconds =       0.10 minutes

*** tstart() called on chemcompute-node-2.novalocal
*** at Mon Oct  3 21:02:23 2022


         ------------------------------------------------------------
                                   SCF GRAD                          
                          Rob Parrish, Justin Turney,                
                       Andy Simmonett, and Alex Sokolov              
         ------------------------------------------------------------

  ==> Geometry <==

    Molecular point group: c1
    Full point group: C1

    Geometry (in Angstrom), charge = 0, multiplicity = 1:

       Center              X                  Y                   Z               Mass       
    ------------   -----------------  -----------------  -----------------  -----------------
         C           -1.806000000000    -0.323000000000     0.197000000000    12.000000000000
         C           -0.676000000000     0.362000000000    -0.013000000000    12.000000000000
         C            0.633000000000    -0.329000000000    -0.023000000000    12.000000000000
         O            1.680000000000     0.293000000000    -0.153000000000    15.994914619570
         H           -1.818000000000    -1.397000000000     0.369000000000     1.007825032230
         H           -2.764000000000     0.189000000000     0.208000000000     1.007825032230
         H           -0.662000000000     1.436000000000    -0.178000000000     1.007825032230
         H            0.611000000000    -1.423000000000     0.097000000000     1.007825032230

  Nuclear repulsion =  102.765821093820648

  ==> Basis Set <==

  Basis Set: 6-31G*
    Blend: 6-31G*
    Number of shells: 32
    Number of basis functions: 68
    Number of Cartesian functions: 68
    Spherical Harmonics?: false
    Max angular momentum: 2

  ==> DFJKGrad: Density-Fitted SCF Gradients <==

    Gradient:                    1
    J tasked:                  Yes
    K tasked:                  Yes
    wK tasked:                  No
    OpenMP threads:              1
    Integrals threads:           1
    Memory [MiB]:             1430
    Schwarz Cutoff:          1E-12
    Fitting Condition:       1E-10

   => Auxiliary Basis Set <=

  Basis Set: (6-31G* AUX)
    Blend: CC-PVDZ-JKFIT
    Number of shells: 132
    Number of basis functions: 424
    Number of Cartesian functions: 424
    Spherical Harmonics?: false
    Max angular momentum: 3

  ==> DFT Potential <==

   => LibXC <=

    Version 5.1.5
    S. Lehtola, C. Steigemann, M. J. Oliveira, and M. A. Marques, SoftwareX 7, 1 (2018) (10.1016/j.softx.2017.11.002)

   => Composite Functional: B3LYP <= 

    B3LYP Hyb-GGA Exchange-Correlation Functional

    P. J. Stephens, F. J. Devlin, C. F. Chabalowski, and M. J. Frisch, J. Phys. Chem. 98, 11623 (1994) (10.1021/j100096a001)

    Deriv               =              1
    GGA                 =           TRUE
    Meta                =          FALSE

    Exchange Hybrid     =           TRUE
    MP2 Hybrid          =          FALSE

   => Exchange Functionals <=

    0.0800   Slater exchange
    0.7200         Becke 88

   => Exact (HF) Exchange <=

    0.2000               HF 

   => Correlation Functionals <=

    0.1900   Vosko, Wilk & Nusair (VWN5_RPA)
    0.8100   Lee, Yang & Parr

   => LibXC Density Thresholds  <==

    XC_HYB_GGA_XC_B3LYP:  1.00E-15 

   => Molecular Quadrature <=

    Radial Scheme          =       TREUTLER
    Pruning Scheme         =           NONE
    Nuclear Scheme         =       TREUTLER

    BS radius alpha        =              1
    Pruning alpha          =              1
    Radial Points          =             75
    Spherical Points       =            302
    Total Points           =         171211
    Total Blocks           =           1323
    Max Points             =            256
    Max Functions          =             67
    Weights Tolerance      =       1.00E-15


  -Total Gradient:
     Atom            X                  Y                   Z
    ------   -----------------  -----------------  -----------------
       1        0.003502088342    -0.006073988376     0.000595380148
       2       -0.002129931292     0.011833330984    -0.000837737454
       3       -0.007496432235    -0.025891904321     0.002641717724
       4        0.006210880410     0.011839782845    -0.001099853500
       5       -0.001153903783    -0.000019343516     0.000484643749
       6        0.001586078560     0.002285601465    -0.000661928969
       7       -0.000489163635     0.000155699766    -0.000249966338
       8       -0.000059916093     0.005851962959    -0.000901296266


*** tstop() called on chemcompute-node-2.novalocal at Mon Oct  3 21:02:24 2022
Module time:
	user time   =       1.06 seconds =       0.02 minutes
	system time =       0.00 seconds =       0.00 minutes
	total time  =          1 seconds =       0.02 minutes
Total time:
	user time   =       6.70 seconds =       0.11 minutes
	system time =       0.27 seconds =       0.00 minutes
	total time  =          7 seconds =       0.12 minutes

			-----------------------------------------
			 OPTKING 2.0: for geometry optimizations 
			  - R.A. King,  Bethel University        
			-----------------------------------------

	Internal coordinates to be generated automatically.
	Detected frag 1 with atoms:  1 2 3 4 5 6 7 8
	---Fragment 1 Bond Connectivity---
	 1 : 2 5 6
	 2 : 1 3 7
	 3 : 2 4 8
	 4 : 3
	 5 : 1
	 6 : 1
	 7 : 2
	 8 : 3

	---Fragment 1 Geometry and Gradient---
	 C          -3.4128453826       -0.6103815385        0.3722760467
	 C          -1.2774548608        0.6840808574       -0.0245664396
	 C           1.1961966374       -0.6217198953       -0.0434637009
	 O           3.1747398908        0.5536897548       -0.2891280972
	 H          -3.4355220961       -2.6399473973        0.6973089403
	 H          -5.2232030108        0.3571582377        0.3930630341
	 H          -1.2509986951        2.7136467162       -0.3363712503
	 H           1.1546226627       -2.6890802765        0.1833034342
	             0.0035020883       -0.0060739884        0.0005953801
	            -0.0021299313        0.0118333310       -0.0008377375
	            -0.0074964322       -0.0258919043        0.0026417177
	             0.0062108804        0.0118397828       -0.0010998535
	            -0.0011539038       -0.0000193435        0.0004846437
	             0.0015860786        0.0022856015       -0.0006619290
	            -0.0004891636        0.0001556998       -0.0002499663
	            -0.0000599161        0.0058519630       -0.0009012963

	Previous optimization step data not found.  Starting new optimization.

	---Fragment 1 Intrafragment Coordinates---
	 - Coordinate -           - BOHR/RAD -       - ANG/DEG -
	 R(1,2)           =         2.528440	       1.337993
	 R(1,5)           =         2.055553	       1.087752
	 R(1,6)           =         2.052793	       1.086291
	 R(2,3)           =         2.797217	       1.480224
	 R(2,7)           =         2.053548	       1.086691
	 R(3,4)           =         2.314427	       1.224742
	 R(3,8)           =         2.080176	       1.100782
	 B(1,2,3)         =         2.104729	     120.592064
	 B(1,2,7)         =         2.142058	     122.730859
	 B(2,1,5)         =         2.140786	     122.657998
	 B(2,1,6)         =         2.100288	     120.337640
	 B(2,3,4)         =         2.117206	     121.306988
	 B(2,3,8)         =         2.032568	     116.457573
	 B(3,2,7)         =         2.036387	     116.676397
	 B(4,3,8)         =         2.133399	     122.234780
	 B(5,1,6)         =         2.042090	     117.003147
	 D(1,2,3,4)       =        -3.082713	    -176.626428
	 D(1,2,3,8)       =         0.053838	       3.084696
	 D(3,2,1,5)       =         0.002312	       0.132477
	 D(3,2,1,6)       =         3.136692	     179.719221
	 D(4,3,2,7)       =         0.053784	       3.081584
	 D(5,1,2,7)       =        -3.133867	    -179.557368
	 D(6,1,2,7)       =         0.000513	       0.029375
	 D(7,2,3,8)       =        -3.092851	    -177.207292

	Current energy   :      -191.9111379869

	Generating empirical Hessian (Schlegel '84) for each fragment.
	Taking RFO optimization step.
	Going to follow RFO solution 1.
	Using RFO vector 1.
	Norm of target step-size    0.12061
	Projected energy change by RFO approximation:        -0.0016081204

	Back-transformation to cartesian coordinates...
	Could not converge backtransformation.
	Using first guess instead.

	--- Internal Coordinate Step in ANG or DEG, aJ/ANG or AJ/DEG ---
	 ---------------------------------------------------------------------------
	   Coordinate                Previous        Force       Change         New 
	   ----------                --------       ------       ------       ------
	    1 R(1,2)          =      1.337993     0.010861     0.001273     1.339266
	    2 R(1,5)          =      1.087752    -0.000885     0.000125     1.087877
	    3 R(1,6)          =      1.086291     0.002726     0.000796     1.087087
	    4 R(2,3)          =      1.480224    -0.021748    -0.003915     1.476309
	    5 R(2,7)          =      1.086691    -0.001543    -0.000240     1.086450
	    6 R(3,4)          =      1.224742    -0.094284    -0.004650     1.220092
	    7 R(3,8)          =      1.100782     0.048740     0.009500     1.110281
	    8 B(1,2,3)        =    120.592064     0.000289     0.985573   121.577636
	    9 B(1,2,7)        =    122.730859    -0.000108    -0.318879   122.411979
	   10 B(2,1,5)        =    122.657998    -0.000271    -1.261818   121.396180
	   11 B(2,1,6)        =    120.337640     0.000357     1.663710   122.001350
	   12 B(2,3,4)        =    121.306988     0.000813     2.733707   124.040695
	   13 B(2,3,8)        =    116.457573    -0.000394    -1.316366   115.141207
	   14 B(3,2,7)        =    116.676397    -0.000181    -0.668592   116.007805
	   15 B(4,3,8)        =    122.234780    -0.000419    -1.439454   120.795327
	   16 B(5,1,6)        =    117.003147    -0.000086    -0.400709   116.602438
	   17 D(1,2,3,4)      =   -176.626428    -0.000009    -3.349651  -179.976079
	   18 D(1,2,3,8)      =      3.084696    -0.000003    -1.332228     1.752468
	   19 D(3,2,1,5)      =      0.132477    -0.000007    -0.808751    -0.676273
	   20 D(3,2,1,6)      =    179.719221    -0.000003    -0.462552   179.256669
	   21 D(4,3,2,7)      =      3.081584    -0.000010    -3.628536    -0.546952
	   22 D(5,1,2,7)      =   -179.557368    -0.000005    -0.511165  -180.068533
	   23 D(6,1,2,7)      =      0.029375    -0.000002    -0.164966    -0.135591
	   24 D(7,2,3,8)      =   -177.207292    -0.000005    -1.611113  -178.818405
	 ---------------------------------------------------------------------------
	Successfully symmetrized geometry.

  ==> Convergence Check <==

  Measures of convergence in internal coordinates in au.
  Criteria marked as inactive (o), active & met (*), and active & unmet ( ).
  --------------------------------------------------------------------------------------------- ~
   Step     Total Energy     Delta E     MAX Force     RMS Force      MAX Disp      RMS Disp    ~
  --------------------------------------------------------------------------------------------- ~
    Convergence Criteria    1.00e-06 *    3.00e-04 *             o    1.20e-03 *             o  ~
  --------------------------------------------------------------------------------------------- ~
      1    -191.91113799   -1.92e+02      1.14e-02      4.11e-03 o    6.33e-02      2.49e-02 o  ~
  ---------------------------------------------------------------------------------------------

	Writing optimization data to binary file.
	Structure for next step:
	Cartesian Geometry (in Angstrom)
	    C    -1.8125742373  -0.3174138306   0.1922447099
	    C    -0.6765518003   0.3634503784  -0.0065287976
	    C     0.6372502126  -0.3098776810  -0.0130119262
	    O     1.6986961990   0.2654346567  -0.1890012833
	    H    -1.8083841964  -1.3944358499   0.3454836523
	    H    -2.7825568618   0.1730660911   0.2101864956
	    H    -0.6616467436   1.4385699036  -0.1623177480
	    H     0.6037674467  -1.4107936634   0.1269448954
			--------------------------
			 OPTKING Finished Execution 
			--------------------------

    Structure for next step:
    Molecular point group: c1
    Full point group: C1

    Geometry (in Angstrom), charge = 0, multiplicity = 1:

    C           -1.812574244436    -0.317413831896     0.192244710633
    C           -0.676551802955     0.363450379826    -0.006528797635
    C            0.637250215060    -0.309877682248    -0.013011926300
    O            1.698696205715     0.265434657695    -0.189001284058
    H           -1.808384203530    -1.394435855400     0.345483653704
    H           -2.782556872753     0.173066091778     0.210186496440
    H           -0.661646746219     1.438569909207    -0.162317748653
    H            0.603767449118    -1.410793668961     0.126944895868


Scratch directory: /scratch/
gradient() will perform analytic gradient computation.

*** tstart() called on chemcompute-node-2.novalocal
*** at Mon Oct  3 21:02:24 2022

   => Loading Basis Set <=

    Name: 6-31G*
    Role: ORBITAL
    Keyword: BASIS
    atoms 1-3 entry C          line   111 file /usr/local/share/psi4/basis/6-31gs.gbs 
    atoms 4   entry O          line   145 file /usr/local/share/psi4/basis/6-31gs.gbs 
    atoms 5-8 entry H          line    44 file /usr/local/share/psi4/basis/6-31gs.gbs 


         ---------------------------------------------------------
                                   SCF
               by Justin Turney, Rob Parrish, Andy Simmonett
                          and Daniel G. A. Smith
                              RKS Reference
                        1 Threads,   1907 MiB Core
         ---------------------------------------------------------

  ==> Geometry <==

    Molecular point group: c1
    Full point group: C1

    Geometry (in Angstrom), charge = 0, multiplicity = 1:

       Center              X                  Y                   Z               Mass       
    ------------   -----------------  -----------------  -----------------  -----------------
         C           -1.812574244436    -0.317413831896     0.192244710633    12.000000000000
         C           -0.676551802955     0.363450379826    -0.006528797635    12.000000000000
         C            0.637250215060    -0.309877682248    -0.013011926300    12.000000000000
         O            1.698696205715     0.265434657695    -0.189001284058    15.994914619570
         H           -1.808384203530    -1.394435855400     0.345483653704     1.007825032230
         H           -2.782556872753     0.173066091778     0.210186496440     1.007825032230
         H           -0.661646746219     1.438569909207    -0.162317748653     1.007825032230
         H            0.603767449118    -1.410793668961     0.126944895868     1.007825032230

  Running in c1 symmetry.

  Rotational constants: A =      1.60354  B =      0.15364  C =      0.14021 [cm^-1]
  Rotational constants: A =  48073.01612  B =   4605.91963  C =   4203.47181 [MHz]
  Nuclear repulsion =  102.656150889356411

  Charge       = 0
  Multiplicity = 1
  Electrons    = 30
  Nalpha       = 15
  Nbeta        = 15

  ==> Algorithm <==

  SCF Algorithm Type is DF.
  DIIS enabled.
  MOM disabled.
  Fractional occupation disabled.
  Guess Type is READ.
  Energy threshold   = 1.00e-08
  Density threshold  = 1.00e-08
  Integral threshold = 1.00e-12

  ==> Primary Basis <==

  Basis Set: 6-31G*
    Blend: 6-31G*
    Number of shells: 32
    Number of basis functions: 68
    Number of Cartesian functions: 68
    Spherical Harmonics?: false
    Max angular momentum: 2

  ==> DFT Potential <==

   => LibXC <=

    Version 5.1.5
    S. Lehtola, C. Steigemann, M. J. Oliveira, and M. A. Marques, SoftwareX 7, 1 (2018) (10.1016/j.softx.2017.11.002)

   => Composite Functional: B3LYP <= 

    B3LYP Hyb-GGA Exchange-Correlation Functional

    P. J. Stephens, F. J. Devlin, C. F. Chabalowski, and M. J. Frisch, J. Phys. Chem. 98, 11623 (1994) (10.1021/j100096a001)

    Deriv               =              1
    GGA                 =           TRUE
    Meta                =          FALSE

    Exchange Hybrid     =           TRUE
    MP2 Hybrid          =          FALSE

   => Exchange Functionals <=

    0.0800   Slater exchange
    0.7200         Becke 88

   => Exact (HF) Exchange <=

    0.2000               HF 

   => Correlation Functionals <=

    0.1900   Vosko, Wilk & Nusair (VWN5_RPA)
    0.8100   Lee, Yang & Parr

   => LibXC Density Thresholds  <==

    XC_HYB_GGA_XC_B3LYP:  1.00E-15 

   => Molecular Quadrature <=

    Radial Scheme          =       TREUTLER
    Pruning Scheme         =           NONE
    Nuclear Scheme         =       TREUTLER

    BS radius alpha        =              1
    Pruning alpha          =              1
    Radial Points          =             75
    Spherical Points       =            302
    Total Points           =         171182
    Total Blocks           =           1317
    Max Points             =            256
    Max Functions          =             67
    Weights Tolerance      =       1.00E-15

   => Loading Basis Set <=

    Name: (6-31G* AUX)
    Role: JKFIT
    Keyword: DF_BASIS_SCF
    atoms 1-3 entry C          line   121 file /usr/local/share/psi4/basis/cc-pvdz-jkfit.gbs 
    atoms 4   entry O          line   221 file /usr/local/share/psi4/basis/cc-pvdz-jkfit.gbs 
    atoms 5-8 entry H          line    51 file /usr/local/share/psi4/basis/cc-pvdz-jkfit.gbs 

   => Loading Basis Set <=

    Name: 6-31G*
    Role: ORBITAL
    Keyword: BASIS
    atoms 1-3 entry C          line   111 file /usr/local/share/psi4/basis/6-31gs.gbs 
    atoms 4   entry O          line   145 file /usr/local/share/psi4/basis/6-31gs.gbs 
    atoms 5-8 entry H          line    44 file /usr/local/share/psi4/basis/6-31gs.gbs 

  Reading orbitals from file /scratch/Psi4.12.180.npy, no projection.

  ==> Integral Setup <==

  DFHelper Memory: AOs need 0.017 GiB; user supplied 1.104 GiB. Using in-core AOs.

  ==> MemDFJK: Density-Fitted J/K Matrices <==

    J tasked:                   Yes
    K tasked:                   Yes
    wK tasked:                   No
    OpenMP threads:               1
    Memory [MiB]:              1130
    Algorithm:                 Core
    Schwarz Cutoff:           1E-12
    Mask sparsity (%):       0.9516
    Fitting Condition:        1E-10

   => Auxiliary Basis Set <=

  Basis Set: (6-31G* AUX)
    Blend: CC-PVDZ-JKFIT
    Number of shells: 132
    Number of basis functions: 424
    Number of Cartesian functions: 424
    Spherical Harmonics?: false
    Max angular momentum: 3

  Cached 100.0% of DFT collocation blocks in 0.293 [GiB].

  Minimum eigenvalue in the overlap matrix is 4.0830990481E-03.
  Reciprocal condition number of the overlap matrix is 6.1696348155E-04.
    Using symmetric orthogonalization.

  ==> Pre-Iterations <==

  SCF Guess: Orbitals guess was supplied from a previous computation.

   -------------------------------------------------------
    Irrep   Nso     Nmo     Nalpha   Nbeta   Ndocc  Nsocc
   -------------------------------------------------------
     A         68      68      15      15      15       0
   -------------------------------------------------------
    Total      68      68      15      15      15       0
   -------------------------------------------------------

  ==> Iterations <==

                           Total Energy        Delta E     RMS |[F,P]|

   @DF-RKS iter   0:  -191.91034757209573   -1.91910e+02   1.49402e-03 
   @DF-RKS iter   1:  -191.91177977308780   -1.43220e-03   1.26875e-04 DIIS
   @DF-RKS iter   2:  -191.91180898778487   -2.92147e-05   1.22284e-04 DIIS
   @DF-RKS iter   3:  -191.91183052689232   -2.15391e-05   6.88094e-05 DIIS
   @DF-RKS iter   4:  -191.91183832779865   -7.80091e-06   1.64850e-05 DIIS
   @DF-RKS iter   5:  -191.91183886858209   -5.40783e-07   6.21208e-06 DIIS
   @DF-RKS iter   6:  -191.91183895127227   -8.26902e-08   2.68485e-06 DIIS
   @DF-RKS iter   7:  -191.91183896961286   -1.83406e-08   5.36430e-07 DIIS
   @DF-RKS iter   8:  -191.91183897030149   -6.88630e-10   1.17000e-07 DIIS
   @DF-RKS iter   9:  -191.91183897034665   -4.51621e-11   3.65359e-08 DIIS
   @DF-RKS iter  10:  -191.91183897035197   -5.31486e-12   4.95290e-09 DIIS
  Energy and wave function converged.


  ==> Post-Iterations <==

   Electrons on quadrature grid:
      Ntotal   =   30.0000203088 ; deviation = 2.031e-05 

    Orbital Energies [Eh]
    ---------------------

    Doubly Occupied:                                                      

       1A    -19.147902     2A    -10.278064     3A    -10.222036  
       4A    -10.211650     5A     -1.039746     6A     -0.803223  
       7A     -0.650065     8A     -0.575317     9A     -0.478615  
      10A     -0.475478    11A     -0.418434    12A     -0.396320  
      13A     -0.395291    14A     -0.293089    15A     -0.257022  

    Virtual:                                                              

      16A     -0.065901    17A      0.056975    18A      0.106117  
      19A      0.111211    20A      0.151531    21A      0.186355  
      22A      0.262615    23A      0.309562    24A      0.352098  
      25A      0.503940    26A      0.511090    27A      0.555233  
      28A      0.582205    29A      0.616229    30A      0.633763  
      31A      0.659803    32A      0.676439    33A      0.805968  
      34A      0.820808    35A      0.852877    36A      0.866576  
      37A      0.905621    38A      0.945881    39A      0.984913  
      40A      1.052453    41A      1.083311    42A      1.146021  
      43A      1.272316    44A      1.327385    45A      1.435333  
      46A      1.542959    47A      1.551012    48A      1.652477  
      49A      1.757227    50A      1.787026    51A      1.842493  
      52A      1.899217    53A      1.986225    54A      2.038566  
      55A      2.126453    56A      2.153836    57A      2.296099  
      58A      2.407065    59A      2.410428    60A      2.584165  
      61A      2.608536    62A      2.862841    63A      2.923291  
      64A      2.997839    65A      3.844247    66A      4.054188  
      67A      4.148322    68A      4.376645  

    Final Occupation by Irrep:
              A 
    DOCC [    15 ]

  @DF-RKS Final Energy:  -191.91183897035197

   => Energetics <=

    Nuclear Repulsion Energy =            102.6561508893564110
    One-Electron Energy =                -462.5670749551355811
    Two-Electron Energy =                 189.2573853412446283
    DFT Exchange-Correlation Energy =     -21.2583002458174342
    Empirical Dispersion Energy =           0.0000000000000000
    VV10 Nonlocal Energy =                  0.0000000000000000
    Total Energy =                       -191.9118389703519654

Computation Completed


Properties will be evaluated at   0.000000,   0.000000,   0.000000 [a0]

Properties computed using the SCF density matrix

  Nuclear Dipole Moment: [e a0]
     X:    -4.1017      Y:    -1.2343      Z:     0.0841

  Electronic Dipole Moment: [e a0]
     X:     2.9077      Y:     0.8942      Z:     0.0669

  Dipole Moment: [e a0]
     X:    -1.1939      Y:    -0.3401      Z:     0.1510     Total:     1.2506

  Dipole Moment: [D]
     X:    -3.0346      Y:    -0.8644      Z:     0.3838     Total:     3.1786


*** tstop() called on chemcompute-node-2.novalocal at Mon Oct  3 21:02:29 2022
Module time:
	user time   =       4.70 seconds =       0.08 minutes
	system time =       0.05 seconds =       0.00 minutes
	total time  =          5 seconds =       0.08 minutes
Total time:
	user time   =      11.41 seconds =       0.19 minutes
	system time =       0.32 seconds =       0.01 minutes
	total time  =         12 seconds =       0.20 minutes

*** tstart() called on chemcompute-node-2.novalocal
*** at Mon Oct  3 21:02:29 2022


         ------------------------------------------------------------
                                   SCF GRAD                          
                          Rob Parrish, Justin Turney,                
                       Andy Simmonett, and Alex Sokolov              
         ------------------------------------------------------------

  ==> Geometry <==

    Molecular point group: c1
    Full point group: C1

    Geometry (in Angstrom), charge = 0, multiplicity = 1:

       Center              X                  Y                   Z               Mass       
    ------------   -----------------  -----------------  -----------------  -----------------
         C           -1.812574244436    -0.317413831896     0.192244710633    12.000000000000
         C           -0.676551802955     0.363450379826    -0.006528797635    12.000000000000
         C            0.637250215060    -0.309877682248    -0.013011926300    12.000000000000
         O            1.698696205715     0.265434657695    -0.189001284058    15.994914619570
         H           -1.808384203530    -1.394435855400     0.345483653704     1.007825032230
         H           -2.782556872753     0.173066091778     0.210186496440     1.007825032230
         H           -0.661646746219     1.438569909207    -0.162317748653     1.007825032230
         H            0.603767449118    -1.410793668961     0.126944895868     1.007825032230

  Nuclear repulsion =  102.656150889356411

  ==> Basis Set <==

  Basis Set: 6-31G*
    Blend: 6-31G*
    Number of shells: 32
    Number of basis functions: 68
    Number of Cartesian functions: 68
    Spherical Harmonics?: false
    Max angular momentum: 2

  ==> DFJKGrad: Density-Fitted SCF Gradients <==

    Gradient:                    1
    J tasked:                  Yes
    K tasked:                  Yes
    wK tasked:                  No
    OpenMP threads:              1
    Integrals threads:           1
    Memory [MiB]:             1430
    Schwarz Cutoff:          1E-12
    Fitting Condition:       1E-10

   => Auxiliary Basis Set <=

  Basis Set: (6-31G* AUX)
    Blend: CC-PVDZ-JKFIT
    Number of shells: 132
    Number of basis functions: 424
    Number of Cartesian functions: 424
    Spherical Harmonics?: false
    Max angular momentum: 3

  ==> DFT Potential <==

   => LibXC <=

    Version 5.1.5
    S. Lehtola, C. Steigemann, M. J. Oliveira, and M. A. Marques, SoftwareX 7, 1 (2018) (10.1016/j.softx.2017.11.002)

   => Composite Functional: B3LYP <= 

    B3LYP Hyb-GGA Exchange-Correlation Functional

    P. J. Stephens, F. J. Devlin, C. F. Chabalowski, and M. J. Frisch, J. Phys. Chem. 98, 11623 (1994) (10.1021/j100096a001)

    Deriv               =              1
    GGA                 =           TRUE
    Meta                =          FALSE

    Exchange Hybrid     =           TRUE
    MP2 Hybrid          =          FALSE

   => Exchange Functionals <=

    0.0800   Slater exchange
    0.7200         Becke 88

   => Exact (HF) Exchange <=

    0.2000               HF 

   => Correlation Functionals <=

    0.1900   Vosko, Wilk & Nusair (VWN5_RPA)
    0.8100   Lee, Yang & Parr

   => LibXC Density Thresholds  <==

    XC_HYB_GGA_XC_B3LYP:  1.00E-15 

   => Molecular Quadrature <=

    Radial Scheme          =       TREUTLER
    Pruning Scheme         =           NONE
    Nuclear Scheme         =       TREUTLER

    BS radius alpha        =              1
    Pruning alpha          =              1
    Radial Points          =             75
    Spherical Points       =            302
    Total Points           =         171182
    Total Blocks           =           1317
    Max Points             =            256
    Max Functions          =             67
    Weights Tolerance      =       1.00E-15


  -Total Gradient:
     Atom            X                  Y                   Z
    ------   -----------------  -----------------  -----------------
       1       -0.000504112601    -0.001837362959     0.000373511613
       2       -0.000764747214     0.001617367167    -0.001761025605
       3       -0.004915880641    -0.004005434404     0.004963609809
       4        0.005863138852     0.002629167443    -0.002110309235
       5       -0.000316329324     0.000363975995    -0.000262247147
       6       -0.000504624242     0.000684635445     0.000340513208
       7        0.000414195791    -0.000813729858     0.000010654183
       8        0.000686559506     0.001350896758    -0.001546611247


*** tstop() called on chemcompute-node-2.novalocal at Mon Oct  3 21:02:30 2022
Module time:
	user time   =       1.04 seconds =       0.02 minutes
	system time =       0.01 seconds =       0.00 minutes
	total time  =          1 seconds =       0.02 minutes
Total time:
	user time   =      12.45 seconds =       0.21 minutes
	system time =       0.33 seconds =       0.01 minutes
	total time  =         13 seconds =       0.22 minutes

			-----------------------------------------
			 OPTKING 2.0: for geometry optimizations 
			  - R.A. King,  Bethel University        
			-----------------------------------------

	Previous internal coordinate definitions found.
	---Fragment 1 Geometry and Gradient---
	 C          -3.4252689040       -0.5998252107        0.3632898522
	 C          -1.2784976173        0.6868216781       -0.0123376395
	 C           1.2042283799       -0.5855839518       -0.0245889771
	 O           3.2100705992        0.5015988072       -0.3571606642
	 H          -3.4173508743       -2.6351018662        0.6528694863
	 H          -5.2582704180        0.3270475151        0.3971949135
	 H          -1.2503311422        2.7185031407       -0.3067360903
	 H           1.1409551223       -2.6660136539        0.2398910862
	            -0.0005041126       -0.0018373630        0.0003735116
	            -0.0007647472        0.0016173672       -0.0017610256
	            -0.0049158806       -0.0040054344        0.0049636098
	             0.0058631389        0.0026291674       -0.0021103092
	            -0.0003163293        0.0003639760       -0.0002622471
	            -0.0005046242        0.0006846354        0.0003405132
	             0.0004141958       -0.0008137299        0.0000106542
	             0.0006865595        0.0013508968       -0.0015466112

	---Fragment 1 Intrafragment Coordinates---
	 - Coordinate -           - BOHR/RAD -       - ANG/DEG -
	 R(1,2)           =         2.530846	       1.339266
	 R(1,5)           =         2.055789	       1.087877
	 R(1,6)           =         2.054297	       1.087087
	 R(2,3)           =         2.789820	       1.476309
	 R(2,7)           =         2.053094	       1.086450
	 R(3,4)           =         2.305639	       1.220092
	 R(3,8)           =         2.098128	       1.110281
	 B(1,2,3)         =         2.121930	     121.577636
	 B(1,2,7)         =         2.136492	     122.411979
	 B(2,1,5)         =         2.118763	     121.396180
	 B(2,1,6)         =         2.129325	     122.001350
	 B(2,3,4)         =         2.164919	     124.040695
	 B(2,3,8)         =         2.009593	     115.141207
	 B(3,2,7)         =         2.024718	     116.007805
	 B(4,3,8)         =         2.108276	     120.795327
	 B(5,1,6)         =         2.035096	     116.602438
	 D(1,2,3,4)       =        -3.141175	    -179.976079
	 D(1,2,3,8)       =         0.030586	       1.752468
	 D(3,2,1,5)       =        -0.011803	      -0.676273
	 D(3,2,1,6)       =         3.128619	     179.256669
	 D(4,3,2,7)       =        -0.009546	      -0.546952
	 D(5,1,2,7)       =         3.140397	     179.931467
	 D(6,1,2,7)       =        -0.002367	      -0.135591
	 D(7,2,3,8)       =        -3.120970	    -178.818405

	Current energy   :      -191.9118389704

	Energy change for the previous step:
		Projected    :        -0.0016081204
		Actual       :        -0.0007009834

	Performing BFGS update.
	Previous computed or guess Hessian on step 1.
	Steps to be used in Hessian update: 1
	Taking RFO optimization step.
	Going to follow RFO solution 1.
	Using RFO vector 1.
	Norm of target step-size    0.27836
	Projected energy change by RFO approximation:         0.0012042385

	Back-transformation to cartesian coordinates...
	Could not converge backtransformation.
	Using first guess instead.

	--- Internal Coordinate Step in ANG or DEG, aJ/ANG or AJ/DEG ---
	 ---------------------------------------------------------------------------
	   Coordinate                Previous        Force       Change         New 
	   ----------                --------       ------       ------       ------
	    1 R(1,2)          =      1.339266    -0.012989    -0.000696     1.338570
	    2 R(1,5)          =      1.087877     0.003293     0.001169     1.089046
	    3 R(1,6)          =      1.087087    -0.006266    -0.000083     1.087004
	    4 R(2,3)          =      1.476309    -0.012125    -0.003194     1.473115
	    5 R(2,7)          =      1.086450     0.006588     0.001323     1.087774
	    6 R(3,4)          =      1.220092    -0.054790    -0.002694     1.217398
	    7 R(3,8)          =      1.110281     0.012827     0.015738     1.126020
	    8 B(1,2,3)        =    121.577636    -0.000084     0.252270   121.829906
	    9 B(1,2,7)        =    122.411979     0.000008    -0.211974   122.200006
	   10 B(2,1,5)        =    121.396180    -0.000047    -0.945848   120.450332
	   11 B(2,1,6)        =    122.001350     0.000049     1.152158   123.153509
	   12 B(2,3,4)        =    124.040695    -0.000003     1.298258   125.338953
	   13 B(2,3,8)        =    115.141207    -0.000055    -1.364535   113.776673
	   14 B(3,2,7)        =    116.007805     0.000077    -0.037787   115.970018
	   15 B(4,3,8)        =    120.795327     0.000063    -1.297145   119.498182
	   16 B(5,1,6)        =    116.602438    -0.000002    -0.207184   116.395254
	   17 D(1,2,3,4)      =   -179.976079     0.000018     5.936470  -174.039609
	   18 D(1,2,3,8)      =      1.752468    -0.000024    -9.385533    -7.633065
	   19 D(3,2,1,5)      =     -0.676273     0.000006     0.463285    -0.212988
	   20 D(3,2,1,6)      =    179.256669     0.000008     0.889247   180.145916
	   21 D(4,3,2,7)      =     -0.546952     0.000022     6.601858     6.054907
	   22 D(5,1,2,7)      =    179.931467     0.000001    -0.244872   179.686595
	   23 D(6,1,2,7)      =     -0.135591     0.000004     0.181090     0.045499
	   24 D(7,2,3,8)      =   -178.818405    -0.000019    -8.720144  -187.538549
	 ---------------------------------------------------------------------------
	Successfully symmetrized geometry.

  ==> Convergence Check <==

  Measures of convergence in internal coordinates in au.
  Criteria marked as inactive (o), active & met (*), and active & unmet ( ).
  ---------------------------------------------------------------------------------------------
   Step     Total Energy     Delta E     MAX Force     RMS Force      MAX Disp      RMS Disp   
  ---------------------------------------------------------------------------------------------
    Convergence Criteria    1.00e-06 *    3.00e-04 *             o    1.20e-03 *             o
  ---------------------------------------------------------------------------------------------
      2    -191.91183897   -7.01e-04      6.65e-03      1.62e-03 o    1.64e-01      5.69e-02 o  ~
  ---------------------------------------------------------------------------------------------

	Writing optimization data to binary file.
	Structure for next step:
	Cartesian Geometry (in Angstrom)
	    C    -1.8118696685  -0.3126489670   0.1897982173
	    C    -0.6771370602   0.3658309302  -0.0195284078
	    C     0.6305972294  -0.3090552226  -0.0860757101
	    O     1.7083963010   0.2506978723  -0.1702339187
	    H    -1.7932164303  -1.3944424468   0.3138811935
	    H    -2.7880549027   0.1628160159   0.2405207217
	    H    -0.6633282401   1.4453980452  -0.1521770841
	    H     0.5926127903  -1.4005962226   0.1878149863
			--------------------------
			 OPTKING Finished Execution 
			--------------------------

    Structure for next step:
    Molecular point group: c1
    Full point group: C1

    Geometry (in Angstrom), charge = 0, multiplicity = 1:

    C           -1.811869675587    -0.312648968234     0.189798218064
    C           -0.677137062877     0.365830931686    -0.019528407860
    C            0.630597231875    -0.309055223788    -0.086075710464
    O            1.708396307736     0.250697873301    -0.170233919412
    H           -1.793216437379    -1.394442452255     0.313881194729
    H           -2.788054913667     0.162816016499     0.240520722670
    H           -0.663328242726     1.445398050883    -0.152177084735
    H            0.592612792625    -1.400596228093     0.187814987008


Scratch directory: /scratch/
gradient() will perform analytic gradient computation.

*** tstart() called on chemcompute-node-2.novalocal
*** at Mon Oct  3 21:02:30 2022

   => Loading Basis Set <=

    Name: 6-31G*
    Role: ORBITAL
    Keyword: BASIS
    atoms 1-3 entry C          line   111 file /usr/local/share/psi4/basis/6-31gs.gbs 
    atoms 4   entry O          line   145 file /usr/local/share/psi4/basis/6-31gs.gbs 
    atoms 5-8 entry H          line    44 file /usr/local/share/psi4/basis/6-31gs.gbs 


         ---------------------------------------------------------
                                   SCF
               by Justin Turney, Rob Parrish, Andy Simmonett
                          and Daniel G. A. Smith
                              RKS Reference
                        1 Threads,   1907 MiB Core
         ---------------------------------------------------------

  ==> Geometry <==

    Molecular point group: c1
    Full point group: C1

    Geometry (in Angstrom), charge = 0, multiplicity = 1:

       Center              X                  Y                   Z               Mass       
    ------------   -----------------  -----------------  -----------------  -----------------
         C           -1.811869675587    -0.312648968234     0.189798218064    12.000000000000
         C           -0.677137062877     0.365830931686    -0.019528407860    12.000000000000
         C            0.630597231875    -0.309055223788    -0.086075710464    12.000000000000
         O            1.708396307736     0.250697873301    -0.170233919412    15.994914619570
         H           -1.793216437379    -1.394442452255     0.313881194729     1.007825032230
         H           -2.788054913667     0.162816016499     0.240520722670     1.007825032230
         H           -0.663328242726     1.445398050883    -0.152177084735     1.007825032230
         H            0.592612792625    -1.400596228093     0.187814987008     1.007825032230

  Running in c1 symmetry.

  Rotational constants: A =      1.61337  B =      0.15317  C =      0.14007 [cm^-1]
  Rotational constants: A =  48367.53946  B =   4591.97615  C =   4199.16939 [MHz]
  Nuclear repulsion =  102.657971370511333

  Charge       = 0
  Multiplicity = 1
  Electrons    = 30
  Nalpha       = 15
  Nbeta        = 15

  ==> Algorithm <==

  SCF Algorithm Type is DF.
  DIIS enabled.
  MOM disabled.
  Fractional occupation disabled.
  Guess Type is READ.
  Energy threshold   = 1.00e-08
  Density threshold  = 1.00e-08
  Integral threshold = 1.00e-12

  ==> Primary Basis <==

  Basis Set: 6-31G*
    Blend: 6-31G*
    Number of shells: 32
    Number of basis functions: 68
    Number of Cartesian functions: 68
    Spherical Harmonics?: false
    Max angular momentum: 2

  ==> DFT Potential <==

   => LibXC <=

    Version 5.1.5
    S. Lehtola, C. Steigemann, M. J. Oliveira, and M. A. Marques, SoftwareX 7, 1 (2018) (10.1016/j.softx.2017.11.002)

   => Composite Functional: B3LYP <= 

    B3LYP Hyb-GGA Exchange-Correlation Functional

    P. J. Stephens, F. J. Devlin, C. F. Chabalowski, and M. J. Frisch, J. Phys. Chem. 98, 11623 (1994) (10.1021/j100096a001)

    Deriv               =              1
    GGA                 =           TRUE
    Meta                =          FALSE

    Exchange Hybrid     =           TRUE
    MP2 Hybrid          =          FALSE

   => Exchange Functionals <=

    0.0800   Slater exchange
    0.7200         Becke 88

   => Exact (HF) Exchange <=

    0.2000               HF 

   => Correlation Functionals <=

    0.1900   Vosko, Wilk & Nusair (VWN5_RPA)
    0.8100   Lee, Yang & Parr

   => LibXC Density Thresholds  <==

    XC_HYB_GGA_XC_B3LYP:  1.00E-15 

   => Molecular Quadrature <=

    Radial Scheme          =       TREUTLER
    Pruning Scheme         =           NONE
    Nuclear Scheme         =       TREUTLER

    BS radius alpha        =              1
    Pruning alpha          =              1
    Radial Points          =             75
    Spherical Points       =            302
    Total Points           =         171171
    Total Blocks           =           1316
    Max Points             =            256
    Max Functions          =             67
    Weights Tolerance      =       1.00E-15

   => Loading Basis Set <=

    Name: (6-31G* AUX)
    Role: JKFIT
    Keyword: DF_BASIS_SCF
    atoms 1-3 entry C          line   121 file /usr/local/share/psi4/basis/cc-pvdz-jkfit.gbs 
    atoms 4   entry O          line   221 file /usr/local/share/psi4/basis/cc-pvdz-jkfit.gbs 
    atoms 5-8 entry H          line    51 file /usr/local/share/psi4/basis/cc-pvdz-jkfit.gbs 

   => Loading Basis Set <=

    Name: 6-31G*
    Role: ORBITAL
    Keyword: BASIS
    atoms 1-3 entry C          line   111 file /usr/local/share/psi4/basis/6-31gs.gbs 
    atoms 4   entry O          line   145 file /usr/local/share/psi4/basis/6-31gs.gbs 
    atoms 5-8 entry H          line    44 file /usr/local/share/psi4/basis/6-31gs.gbs 

  Reading orbitals from file /scratch/Psi4.12.180.npy, no projection.

  ==> Integral Setup <==

  DFHelper Memory: AOs need 0.017 GiB; user supplied 1.104 GiB. Using in-core AOs.

  ==> MemDFJK: Density-Fitted J/K Matrices <==

    J tasked:                   Yes
    K tasked:                   Yes
    wK tasked:                   No
    OpenMP threads:               1
    Memory [MiB]:              1130
    Algorithm:                 Core
    Schwarz Cutoff:           1E-12
    Mask sparsity (%):       0.9516
    Fitting Condition:        1E-10

   => Auxiliary Basis Set <=

  Basis Set: (6-31G* AUX)
    Blend: CC-PVDZ-JKFIT
    Number of shells: 132
    Number of basis functions: 424
    Number of Cartesian functions: 424
    Spherical Harmonics?: false
    Max angular momentum: 3

  Cached 100.0% of DFT collocation blocks in 0.293 [GiB].

  Minimum eigenvalue in the overlap matrix is 4.0890741056E-03.
  Reciprocal condition number of the overlap matrix is 6.1755965326E-04.
    Using symmetric orthogonalization.

  ==> Pre-Iterations <==

  SCF Guess: Orbitals guess was supplied from a previous computation.

   -------------------------------------------------------
    Irrep   Nso     Nmo     Nalpha   Nbeta   Ndocc  Nsocc
   -------------------------------------------------------
     A         68      68      15      15      15       0
   -------------------------------------------------------
    Total      68      68      15      15      15       0
   -------------------------------------------------------

  ==> Iterations <==

                           Total Energy        Delta E     RMS |[F,P]|

   @DF-RKS iter   0:  -191.89803860882364   -1.91898e+02   2.10715e-03 
   @DF-RKS iter   1:  -191.90941511291010   -1.13765e-02   2.07225e-04 DIIS
   @DF-RKS iter   2:  -191.90945748473496   -4.23718e-05   2.30748e-04 DIIS
   @DF-RKS iter   3:  -191.90957837760993   -1.20893e-04   7.65201e-05 DIIS
   @DF-RKS iter   4:  -191.90959125752877   -1.28799e-05   2.43663e-05 DIIS
   @DF-RKS iter   5:  -191.90959266695998   -1.40943e-06   6.86507e-06 DIIS
   @DF-RKS iter   6:  -191.90959278773099   -1.20771e-07   2.97235e-06 DIIS
   @DF-RKS iter   7:  -191.90959280478305   -1.70521e-08   1.57068e-06 DIIS
   @DF-RKS iter   8:  -191.90959281000218   -5.21914e-09   3.33556e-07 DIIS
   @DF-RKS iter   9:  -191.90959281047770   -4.75524e-10   8.00535e-08 DIIS
   @DF-RKS iter  10:  -191.90959281050107   -2.33626e-11   9.25392e-09 DIIS
  Energy and wave function converged.


  ==> Post-Iterations <==

   Electrons on quadrature grid:
      Ntotal   =   30.0000176219 ; deviation = 1.762e-05 

    Orbital Energies [Eh]
    ---------------------

    Doubly Occupied:                                                      

       1A    -19.149152     2A    -10.279107     3A    -10.222958  
       4A    -10.212529     5A     -1.041912     6A     -0.804468  
       7A     -0.650661     8A     -0.572926     9A     -0.477469  
      10A     -0.476672    11A     -0.419653    12A     -0.397634  
      13A     -0.394672    14A     -0.294172    15A     -0.256799  

    Virtual:                                                              

      16A     -0.067273    17A      0.054472    18A      0.106536  
      19A      0.110200    20A      0.152914    21A      0.184258  
      22A      0.264774    23A      0.309396    24A      0.352571  
      25A      0.503374    26A      0.510305    27A      0.558335  
      28A      0.580856    29A      0.614561    30A      0.633632  
      31A      0.661162    32A      0.679387    33A      0.799212  
      34A      0.819068    35A      0.851222    36A      0.864529  
      37A      0.906422    38A      0.944994    39A      0.974647  
      40A      1.049179    41A      1.085546    42A      1.139825  
      43A      1.260697    44A      1.335447    45A      1.435529  
      46A      1.537334    47A      1.572672    48A      1.652757  
      49A      1.750740    50A      1.775949    51A      1.851775  
      52A      1.900732    53A      1.980177    54A      2.029773  
      55A      2.125207    56A      2.162097    57A      2.286235  
      58A      2.412284    59A      2.414483    60A      2.592263  
      61A      2.611130    62A      2.868474    63A      2.918889  
      64A      2.996973    65A      3.845716    66A      4.053324  
      67A      4.145939    68A      4.378637  

    Final Occupation by Irrep:
              A 
    DOCC [    15 ]

  @DF-RKS Final Energy:  -191.90959281050107

   => Energetics <=

    Nuclear Repulsion Energy =            102.6579713705113335
    One-Electron Energy =                -462.5510132279679283
    Two-Electron Energy =                 189.2391670192990318
    DFT Exchange-Correlation Energy =     -21.2557179723435148
    Empirical Dispersion Energy =           0.0000000000000000
    VV10 Nonlocal Energy =                  0.0000000000000000
    Total Energy =                       -191.9095928105010671

Computation Completed


Properties will be evaluated at   0.000000,   0.000000,   0.000000 [a0]

Properties computed using the SCF density matrix

  Nuclear Dipole Moment: [e a0]
     X:    -4.0351      Y:    -1.3540      Z:    -0.5039

  Electronic Dipole Moment: [e a0]
     X:     2.8261      Y:     1.0437      Z:     0.6180

  Dipole Moment: [e a0]
     X:    -1.2090      Y:    -0.3103      Z:     0.1141     Total:     1.2534

  Dipole Moment: [D]
     X:    -3.0729      Y:    -0.7887      Z:     0.2901     Total:     3.1858


*** tstop() called on chemcompute-node-2.novalocal at Mon Oct  3 21:02:34 2022
Module time:
	user time   =       4.69 seconds =       0.08 minutes
	system time =       0.03 seconds =       0.00 minutes
	total time  =          4 seconds =       0.07 minutes
Total time:
	user time   =      17.15 seconds =       0.29 minutes
	system time =       0.36 seconds =       0.01 minutes
	total time  =         17 seconds =       0.28 minutes

*** tstart() called on chemcompute-node-2.novalocal
*** at Mon Oct  3 21:02:34 2022


         ------------------------------------------------------------
                                   SCF GRAD                          
                          Rob Parrish, Justin Turney,                
                       Andy Simmonett, and Alex Sokolov              
         ------------------------------------------------------------

  ==> Geometry <==

    Molecular point group: c1
    Full point group: C1

    Geometry (in Angstrom), charge = 0, multiplicity = 1:

       Center              X                  Y                   Z               Mass       
    ------------   -----------------  -----------------  -----------------  -----------------
         C           -1.811869675587    -0.312648968234     0.189798218064    12.000000000000
         C           -0.677137062877     0.365830931686    -0.019528407860    12.000000000000
         C            0.630597231875    -0.309055223788    -0.086075710464    12.000000000000
         O            1.708396307736     0.250697873301    -0.170233919412    15.994914619570
         H           -1.793216437379    -1.394442452255     0.313881194729     1.007825032230
         H           -2.788054913667     0.162816016499     0.240520722670     1.007825032230
         H           -0.663328242726     1.445398050883    -0.152177084735     1.007825032230
         H            0.592612792625    -1.400596228093     0.187814987008     1.007825032230

  Nuclear repulsion =  102.657971370511333

  ==> Basis Set <==

  Basis Set: 6-31G*
    Blend: 6-31G*
    Number of shells: 32
    Number of basis functions: 68
    Number of Cartesian functions: 68
    Spherical Harmonics?: false
    Max angular momentum: 2

  ==> DFJKGrad: Density-Fitted SCF Gradients <==

    Gradient:                    1
    J tasked:                  Yes
    K tasked:                  Yes
    wK tasked:                  No
    OpenMP threads:              1
    Integrals threads:           1
    Memory [MiB]:             1430
    Schwarz Cutoff:          1E-12
    Fitting Condition:       1E-10

   => Auxiliary Basis Set <=

  Basis Set: (6-31G* AUX)
    Blend: CC-PVDZ-JKFIT
    Number of shells: 132
    Number of basis functions: 424
    Number of Cartesian functions: 424
    Spherical Harmonics?: false
    Max angular momentum: 3

  ==> DFT Potential <==

   => LibXC <=

    Version 5.1.5
    S. Lehtola, C. Steigemann, M. J. Oliveira, and M. A. Marques, SoftwareX 7, 1 (2018) (10.1016/j.softx.2017.11.002)

   => Composite Functional: B3LYP <= 

    B3LYP Hyb-GGA Exchange-Correlation Functional

    P. J. Stephens, F. J. Devlin, C. F. Chabalowski, and M. J. Frisch, J. Phys. Chem. 98, 11623 (1994) (10.1021/j100096a001)

    Deriv               =              1
    GGA                 =           TRUE
    Meta                =          FALSE

    Exchange Hybrid     =           TRUE
    MP2 Hybrid          =          FALSE

   => Exchange Functionals <=

    0.0800   Slater exchange
    0.7200         Becke 88

   => Exact (HF) Exchange <=

    0.2000               HF 

   => Correlation Functionals <=

    0.1900   Vosko, Wilk & Nusair (VWN5_RPA)
    0.8100   Lee, Yang & Parr

   => LibXC Density Thresholds  <==

    XC_HYB_GGA_XC_B3LYP:  1.00E-15 

   => Molecular Quadrature <=

    Radial Scheme          =       TREUTLER
    Pruning Scheme         =           NONE
    Nuclear Scheme         =       TREUTLER

    BS radius alpha        =              1
    Pruning alpha          =              1
    Radial Points          =             75
    Spherical Points       =            302
    Total Points           =         171171
    Total Blocks           =           1316
    Max Points             =            256
    Max Functions          =             67
    Weights Tolerance      =       1.00E-15


  -Total Gradient:
     Atom            X                  Y                   Z
    ------   -----------------  -----------------  -----------------
       1       -0.001651130147     0.002436114764     0.000459312609
       2        0.001392214423    -0.004648888344     0.008702285643
       3       -0.005845797883     0.008113878237    -0.028521567939
       4        0.004980265434    -0.001329857369     0.009269417271
       5        0.000508226993     0.000035587480     0.000170211009
       6       -0.001552394176    -0.000731163408    -0.000825540269
       7        0.000573525204    -0.000342967539     0.000173092843
       8        0.001605142166    -0.003541994742     0.010536028116


*** tstop() called on chemcompute-node-2.novalocal at Mon Oct  3 21:02:35 2022
Module time:
	user time   =       1.04 seconds =       0.02 minutes
	system time =       0.01 seconds =       0.00 minutes
	total time  =          1 seconds =       0.02 minutes
Total time:
	user time   =      18.19 seconds =       0.30 minutes
	system time =       0.37 seconds =       0.01 minutes
	total time  =         18 seconds =       0.30 minutes

			-----------------------------------------
			 OPTKING 2.0: for geometry optimizations 
			  - R.A. King,  Bethel University        
			-----------------------------------------

	Previous internal coordinate definitions found.
	---Fragment 1 Geometry and Gradient---
	 C          -3.4239374619       -0.5908209234        0.3586666512
	 C          -1.2796035982        0.6913202691       -0.0369033425
	 C           1.1916560637       -0.5840297306       -0.1626595188
	 O           3.2284011354        0.4737503208       -0.3216954850
	 H          -3.3886879503       -2.6351143325        0.5931494940
	 H          -5.2686602096        0.3076776800        0.4545182933
	 H          -1.2535087100        2.7314064584       -0.2875730127
	 H           1.1198758765       -2.6467432834        0.3549188877
	            -0.0016511301        0.0024361148        0.0004593126
	             0.0013922144       -0.0046488883        0.0087022856
	            -0.0058457979        0.0081138782       -0.0285215679
	             0.0049802654       -0.0013298574        0.0092694173
	             0.0005082270        0.0000355875        0.0001702110
	            -0.0015523942       -0.0007311634       -0.0008255403
	             0.0005735252       -0.0003429675        0.0001730928
	             0.0016051422       -0.0035419947        0.0105360281

	---Fragment 1 Intrafragment Coordinates---
	 - Coordinate -           - BOHR/RAD -       - ANG/DEG -
	 R(1,2)           =         2.529531	       1.338570
	 R(1,5)           =         2.057999	       1.089046
	 R(1,6)           =         2.054140	       1.087004
	 R(2,3)           =         2.783785	       1.473115
	 R(2,7)           =         2.055594	       1.087774
	 R(3,4)           =         2.300548	       1.217398
	 R(3,8)           =         2.127869	       1.126020
	 B(1,2,3)         =         2.126333	     121.829906
	 B(1,2,7)         =         2.132792	     122.200006
	 B(2,1,5)         =         2.102255	     120.450332
	 B(2,1,6)         =         2.149434	     123.153509
	 B(2,3,4)         =         2.187577	     125.338953
	 B(2,3,8)         =         1.985778	     113.776673
	 B(3,2,7)         =         2.024059	     115.970018
	 B(4,3,8)         =         2.085637	     119.498182
	 B(5,1,6)         =         2.031480	     116.395254
	 D(1,2,3,4)       =        -3.037564	    -174.039609
	 D(1,2,3,8)       =        -0.133222	      -7.633065
	 D(3,2,1,5)       =        -0.003717	      -0.212988
	 D(3,2,1,6)       =        -3.139046	    -179.854084
	 D(4,3,2,7)       =         0.105678	       6.054907
	 D(5,1,2,7)       =         3.136123	     179.686595
	 D(6,1,2,7)       =         0.000794	       0.045499
	 D(7,2,3,8)       =         3.010020	     172.461451

	Current energy   :      -191.9095928105

	Energy change for the previous step:
		Projected    :         0.0012042385
		Actual       :         0.0022461599

	Performing BFGS update.
	Previous computed or guess Hessian on step 1.
	Steps to be used in Hessian update: 2 1
	Taking RFO optimization step.
	Going to follow RFO solution 1.
	Using RFO vector 1.
	Norm of target step-size    0.22950
	Projected energy change by RFO approximation:        -0.0078206207

	Back-transformation to cartesian coordinates...
	Could not converge backtransformation.
	Using first guess instead.

	--- Internal Coordinate Step in ANG or DEG, aJ/ANG or AJ/DEG ---
	 ---------------------------------------------------------------------------
	   Coordinate                Previous        Force       Change         New 
	   ----------                --------       ------       ------       ------
	    1 R(1,2)          =      1.338570    -0.011338    -0.000894     1.337676
	    2 R(1,5)          =      1.089046     0.000058     0.000010     1.089056
	    3 R(1,6)          =      1.087004    -0.008544    -0.000683     1.086321
	    4 R(2,3)          =      1.473115     0.003643     0.001267     1.474383
	    5 R(2,7)          =      1.087774     0.002914     0.000383     1.088157
	    6 R(3,4)          =      1.217398    -0.026012     0.001531     1.218929
	    7 R(3,8)          =      1.126020    -0.048955    -0.005195     1.120824
	    8 B(1,2,3)        =    121.829906    -0.000226    -0.562372   121.267534
	    9 B(1,2,7)        =    122.200006     0.000069     0.148106   122.348111
	   10 B(2,1,5)        =    120.450332     0.000112     0.545229   120.995561
	   11 B(2,1,6)        =    123.153509    -0.000149    -0.738031   122.415478
	   12 B(2,3,4)        =    125.338953    -0.000303    -0.885941   124.453012
	   13 B(2,3,8)        =    113.776673     0.000265     1.090279   114.866952
	   14 B(3,2,7)        =    115.970018     0.000157     0.414326   116.384344
	   15 B(4,3,8)        =    119.498182     0.000303     1.177229   120.675411
	   16 B(5,1,6)        =    116.395254     0.000037     0.193698   116.588952
	   17 D(1,2,3,4)      =   -174.039609    -0.000145    -5.695821  -179.735430
	   18 D(1,2,3,8)      =     -7.633065     0.000160     7.117084    -0.515981
	   19 D(3,2,1,5)      =     -0.212988    -0.000009     0.184937    -0.028051
	   20 D(3,2,1,6)      =   -179.854084    -0.000021    -0.138282  -179.992366
	   21 D(4,3,2,7)      =      6.054907    -0.000154    -5.754270     0.300637
	   22 D(5,1,2,7)      =    179.686595     0.000002     0.247109   179.933704
	   23 D(6,1,2,7)      =      0.045499    -0.000011    -0.076111    -0.030611
	   24 D(7,2,3,8)      =    172.461451     0.000150     7.058635   179.520086
	 ---------------------------------------------------------------------------
	Successfully symmetrized geometry.

  ==> Convergence Check <==

  Measures of convergence in internal coordinates in au.
  Criteria marked as inactive (o), active & met (*), and active & unmet ( ).
  ---------------------------------------------------------------------------------------------
   Step     Total Energy     Delta E     MAX Force     RMS Force      MAX Disp      RMS Disp   
  ---------------------------------------------------------------------------------------------
    Convergence Criteria    1.00e-06 *    3.00e-04 *             o    1.20e-03 *             o
  ---------------------------------------------------------------------------------------------
      3    -191.90959281    2.25e-03      9.16e-03      4.18e-03 o    1.24e-01      4.66e-02 o  ~
  ---------------------------------------------------------------------------------------------

	Writing optimization data to binary file.
	Structure for next step:
	Cartesian Geometry (in Angstrom)
	    C    -1.8089859609  -0.3145894001   0.1909260416
	    C    -0.6761939148   0.3695276025  -0.0043768714
	    C     0.6331191392  -0.3080282382  -0.0249232821
	    O     1.6996960774   0.2575743731  -0.1931321715
	    H    -1.7941107224  -1.3933053516   0.3399030057
	    H    -2.7833269544   0.1654198803   0.2094742653
	    H    -0.6655599154   1.4469455027  -0.1565027159
	    H     0.5933622700  -1.4155443639   0.1426317263
			--------------------------
			 OPTKING Finished Execution 
			--------------------------

    Structure for next step:
    Molecular point group: c1
    Full point group: C1

    Geometry (in Angstrom), charge = 0, multiplicity = 1:

    C           -1.808985968039    -0.314589401327     0.190926042374
    C           -0.676193917424     0.369527603964    -0.004376871446
    C            0.633119141733    -0.308028239460    -0.024923282174
    O            1.699696084101     0.257574374143    -0.193132172237
    H           -1.794110729412    -1.393305357119     0.339903007027
    H           -2.783326965306     0.165419880904     0.209474266121
    H           -0.665559918005     1.446945508338    -0.156502716559
    H            0.593362272351    -1.415544369443     0.142631726894


Scratch directory: /scratch/
gradient() will perform analytic gradient computation.

*** tstart() called on chemcompute-node-2.novalocal
*** at Mon Oct  3 21:02:35 2022

   => Loading Basis Set <=

    Name: 6-31G*
    Role: ORBITAL
    Keyword: BASIS
    atoms 1-3 entry C          line   111 file /usr/local/share/psi4/basis/6-31gs.gbs 
    atoms 4   entry O          line   145 file /usr/local/share/psi4/basis/6-31gs.gbs 
    atoms 5-8 entry H          line    44 file /usr/local/share/psi4/basis/6-31gs.gbs 


         ---------------------------------------------------------
                                   SCF
               by Justin Turney, Rob Parrish, Andy Simmonett
                          and Daniel G. A. Smith
                              RKS Reference
                        1 Threads,   1907 MiB Core
         ---------------------------------------------------------

  ==> Geometry <==

    Molecular point group: c1
    Full point group: C1

    Geometry (in Angstrom), charge = 0, multiplicity = 1:

       Center              X                  Y                   Z               Mass       
    ------------   -----------------  -----------------  -----------------  -----------------
         C           -1.808985968039    -0.314589401327     0.190926042374    12.000000000000
         C           -0.676193917424     0.369527603964    -0.004376871446    12.000000000000
         C            0.633119141733    -0.308028239460    -0.024923282174    12.000000000000
         O            1.699696084101     0.257574374143    -0.193132172237    15.994914619570
         H           -1.794110729412    -1.393305357119     0.339903007027     1.007825032230
         H           -2.783326965306     0.165419880904     0.209474266121     1.007825032230
         H           -0.665559918005     1.446945508338    -0.156502716559     1.007825032230
         H            0.593362272351    -1.415544369443     0.142631726894     1.007825032230

  Running in c1 symmetry.

  Rotational constants: A =      1.59936  B =      0.15398  C =      0.14047 [cm^-1]
  Rotational constants: A =  47947.74527  B =   4616.13265  C =   4211.20003 [MHz]
  Nuclear repulsion =  102.700178966977631

  Charge       = 0
  Multiplicity = 1
  Electrons    = 30
  Nalpha       = 15
  Nbeta        = 15

  ==> Algorithm <==

  SCF Algorithm Type is DF.
  DIIS enabled.
  MOM disabled.
  Fractional occupation disabled.
  Guess Type is READ.
  Energy threshold   = 1.00e-08
  Density threshold  = 1.00e-08
  Integral threshold = 1.00e-12

  ==> Primary Basis <==

  Basis Set: 6-31G*
    Blend: 6-31G*
    Number of shells: 32
    Number of basis functions: 68
    Number of Cartesian functions: 68
    Spherical Harmonics?: false
    Max angular momentum: 2

  ==> DFT Potential <==

   => LibXC <=

    Version 5.1.5
    S. Lehtola, C. Steigemann, M. J. Oliveira, and M. A. Marques, SoftwareX 7, 1 (2018) (10.1016/j.softx.2017.11.002)

   => Composite Functional: B3LYP <= 

    B3LYP Hyb-GGA Exchange-Correlation Functional

    P. J. Stephens, F. J. Devlin, C. F. Chabalowski, and M. J. Frisch, J. Phys. Chem. 98, 11623 (1994) (10.1021/j100096a001)

    Deriv               =              1
    GGA                 =           TRUE
    Meta                =          FALSE

    Exchange Hybrid     =           TRUE
    MP2 Hybrid          =          FALSE

   => Exchange Functionals <=

    0.0800   Slater exchange
    0.7200         Becke 88

   => Exact (HF) Exchange <=

    0.2000               HF 

   => Correlation Functionals <=

    0.1900   Vosko, Wilk & Nusair (VWN5_RPA)
    0.8100   Lee, Yang & Parr

   => LibXC Density Thresholds  <==

    XC_HYB_GGA_XC_B3LYP:  1.00E-15 

   => Molecular Quadrature <=

    Radial Scheme          =       TREUTLER
    Pruning Scheme         =           NONE
    Nuclear Scheme         =       TREUTLER

    BS radius alpha        =              1
    Pruning alpha          =              1
    Radial Points          =             75
    Spherical Points       =            302
    Total Points           =         171173
    Total Blocks           =           1323
    Max Points             =            256
    Max Functions          =             67
    Weights Tolerance      =       1.00E-15

   => Loading Basis Set <=

    Name: (6-31G* AUX)
    Role: JKFIT
    Keyword: DF_BASIS_SCF
    atoms 1-3 entry C          line   121 file /usr/local/share/psi4/basis/cc-pvdz-jkfit.gbs 
    atoms 4   entry O          line   221 file /usr/local/share/psi4/basis/cc-pvdz-jkfit.gbs 
    atoms 5-8 entry H          line    51 file /usr/local/share/psi4/basis/cc-pvdz-jkfit.gbs 

   => Loading Basis Set <=

    Name: 6-31G*
    Role: ORBITAL
    Keyword: BASIS
    atoms 1-3 entry C          line   111 file /usr/local/share/psi4/basis/6-31gs.gbs 
    atoms 4   entry O          line   145 file /usr/local/share/psi4/basis/6-31gs.gbs 
    atoms 5-8 entry H          line    44 file /usr/local/share/psi4/basis/6-31gs.gbs 

  Reading orbitals from file /scratch/Psi4.12.180.npy, no projection.

  ==> Integral Setup <==

  DFHelper Memory: AOs need 0.017 GiB; user supplied 1.104 GiB. Using in-core AOs.

  ==> MemDFJK: Density-Fitted J/K Matrices <==

    J tasked:                   Yes
    K tasked:                   Yes
    wK tasked:                   No
    OpenMP threads:               1
    Memory [MiB]:              1130
    Algorithm:                 Core
    Schwarz Cutoff:           1E-12
    Mask sparsity (%):       0.9516
    Fitting Condition:        1E-10

   => Auxiliary Basis Set <=

  Basis Set: (6-31G* AUX)
    Blend: CC-PVDZ-JKFIT
    Number of shells: 132
    Number of basis functions: 424
    Number of Cartesian functions: 424
    Spherical Harmonics?: false
    Max angular momentum: 3

  Cached 100.0% of DFT collocation blocks in 0.293 [GiB].

  Minimum eigenvalue in the overlap matrix is 4.0440504995E-03.
  Reciprocal condition number of the overlap matrix is 6.1065226454E-04.
    Using symmetric orthogonalization.

  ==> Pre-Iterations <==

  SCF Guess: Orbitals guess was supplied from a previous computation.

   -------------------------------------------------------
    Irrep   Nso     Nmo     Nalpha   Nbeta   Ndocc  Nsocc
   -------------------------------------------------------
     A         68      68      15      15      15       0
   -------------------------------------------------------
    Total      68      68      15      15      15       0
   -------------------------------------------------------

  ==> Iterations <==

[...]
         C           -0.674683968717     0.369617207878    -0.003913152328    12.000000000000
         C            0.634425233888    -0.309314870865    -0.021186523274    12.000000000000
         O            1.696247283796     0.256785747399    -0.193202840439    15.994914619570
         H           -1.792987118690    -1.393484544838     0.342276943240     1.007825032230
         H           -2.781501438224     0.164111252125     0.207563399830     1.007825032230
         H           -0.663517183264     1.444656131368    -0.156841581583     1.007825032230
         H            0.587420699364    -1.408876312773     0.138314130767     1.007825032230

  Nuclear repulsion =  102.840248447290733

  ==> Basis Set <==

  Basis Set: 6-31G*
    Blend: 6-31G*
    Number of shells: 32
    Number of basis functions: 68
    Number of Cartesian functions: 68
    Spherical Harmonics?: false
    Max angular momentum: 2

  ==> DFJKGrad: Density-Fitted SCF Gradients <==

    Gradient:                    1
    J tasked:                  Yes
    K tasked:                  Yes
    wK tasked:                  No
    OpenMP threads:              1
    Integrals threads:           1
    Memory [MiB]:             1430
    Schwarz Cutoff:          1E-12
    Fitting Condition:       1E-10

   => Auxiliary Basis Set <=

  Basis Set: (6-31G* AUX)
    Blend: CC-PVDZ-JKFIT
    Number of shells: 132
    Number of basis functions: 424
    Number of Cartesian functions: 424
    Spherical Harmonics?: false
    Max angular momentum: 3

  ==> DFT Potential <==

   => LibXC <=

    Version 5.1.5
    S. Lehtola, C. Steigemann, M. J. Oliveira, and M. A. Marques, SoftwareX 7, 1 (2018) (10.1016/j.softx.2017.11.002)

   => Composite Functional: B3LYP <= 

    B3LYP Hyb-GGA Exchange-Correlation Functional

    P. J. Stephens, F. J. Devlin, C. F. Chabalowski, and M. J. Frisch, J. Phys. Chem. 98, 11623 (1994) (10.1021/j100096a001)

    Deriv               =              1
    GGA                 =           TRUE
    Meta                =          FALSE

    Exchange Hybrid     =           TRUE
    MP2 Hybrid          =          FALSE

   => Exchange Functionals <=

    0.0800   Slater exchange
    0.7200         Becke 88

   => Exact (HF) Exchange <=

    0.2000               HF 

   => Correlation Functionals <=

    0.1900   Vosko, Wilk & Nusair (VWN5_RPA)
    0.8100   Lee, Yang & Parr

   => LibXC Density Thresholds  <==

    XC_HYB_GGA_XC_B3LYP:  1.00E-15 

   => Molecular Quadrature <=

    Radial Scheme          =       TREUTLER
    Pruning Scheme         =           NONE
    Nuclear Scheme         =       TREUTLER

    BS radius alpha        =              1
    Pruning alpha          =              1
    Radial Points          =             75
    Spherical Points       =            302
    Total Points           =         171157
    Total Blocks           =           1327
    Max Points             =            256
    Max Functions          =             67
    Weights Tolerance      =       1.00E-15


  -Total Gradient:
     Atom            X                  Y                   Z
    ------   -----------------  -----------------  -----------------
       1       -0.000081929728     0.000001819852    -0.000007115423
       2        0.000045077369     0.000879273295    -0.000135216773
       3       -0.000032075342    -0.000785767510     0.000131056403
       4       -0.000037644772     0.000031222001    -0.000007192537
       5        0.000004945380     0.000007759191     0.000004562280
       6        0.000011494819     0.000005022401     0.000003359613
       7        0.000108523403    -0.001148402670     0.000156759955
       8       -0.000061703668     0.001001028672    -0.000141286415


*** tstop() called on chemcompute-node-2.novalocal at Mon Oct  3 21:07:13 2022
Module time:
	user time   =       1.05 seconds =       0.02 minutes
	system time =       0.01 seconds =       0.00 minutes
	total time  =          1 seconds =       0.02 minutes
Total time:
	user time   =     282.80 seconds =       4.71 minutes
	system time =       2.45 seconds =       0.04 minutes
	total time  =        296 seconds =       4.93 minutes

         ----------------------------------------------------------
                                   FINDIF
                     R. A. King and Jonathon Misiewicz
         ---------------------------------------------------------

  Computing second-derivative from gradients using projected, 
  symmetry-adapted, cartesian coordinates.

  37 gradients passed in, including the reference geometry.
  Generating complete list of displacements from unique ones.


-------------------------------------------------------------


  ==> Harmonic Vibrational Analysis <==

  non-mass-weighted Hessian:       Symmetric? True   Hermitian? True   Lin Dep Dim?  6 (0)
  projection of translations (True) and rotations (True) removed 6 degrees of freedom (6)
  total projector:                 Symmetric? True   Hermitian? True   Lin Dep Dim?  6 (6)
  mass-weighted Hessian:           Symmetric? True   Hermitian? True   Lin Dep Dim?  6 (0)
  pre-proj  low-frequency mode:    0.0000i [cm^-1]
  pre-proj  low-frequency mode:    0.0000i [cm^-1]
  pre-proj  low-frequency mode:    0.0000  [cm^-1]
  pre-proj  low-frequency mode:    0.0000  [cm^-1]
  pre-proj  low-frequency mode:    0.0000  [cm^-1]
  pre-proj  low-frequency mode:    0.0000  [cm^-1]
  pre-proj  all modes:['0.0000i' '0.0000i' '0.0000' '0.0000' '0.0000' '0.0000' '172.9963'
 '320.1916' '572.6466' '610.7106' '929.3720' '991.8564' '1022.8611'
 '1043.5610' '1181.2308' '1308.9611' '1410.0146' '1474.9078' '1700.8964'
 '1803.9207' '2902.3787' '3161.7782' '3197.7198' '3250.3509']
  projected mass-weighted Hessian: Symmetric? True   Hermitian? True   Lin Dep Dim?  6 (6)
  post-proj low-frequency mode:    0.0000i [cm^-1] (TR)
  post-proj low-frequency mode:    0.0000i [cm^-1] (TR)
  post-proj low-frequency mode:    0.0000i [cm^-1] (TR)
  post-proj low-frequency mode:    0.0000i [cm^-1] (TR)
  post-proj low-frequency mode:    0.0000i [cm^-1] (TR)
  post-proj low-frequency mode:    0.0000i [cm^-1] (TR)
  post-proj  all modes:['0.0000i' '0.0000i' '0.0000i' '0.0000i' '0.0000i' '0.0000i' '172.9963'
 '320.1916' '572.6466' '610.7106' '929.3720' '991.8564' '1022.8611'
 '1043.5610' '1181.2308' '1308.9611' '1410.0146' '1474.9078' '1700.8964'
 '1803.9207' '2902.3787' '3161.7782' '3197.7198' '3250.3509']

  Vibration                       7                   8                   9           
  Freq [cm^-1]                 172.9963            320.1916            572.6466       
  Irrep                           A                   A                   A           
  Reduced mass [u]              3.4657              2.6956              4.9088        
  Force const [mDyne/A]         0.0611              0.1628              0.9484        
  Turning point v=0 [a0]        0.4481              0.3735              0.2070        
  RMS dev v=0 [a0 u^1/2]        0.5899              0.4336              0.3242        
  Char temp [K]                248.9031            460.6845            823.9109       
  ----------------------------------------------------------------------------------
      1   C                0.02  0.03  0.19    0.13 -0.12  0.01   -0.28 -0.05  0.03   
      2   C               -0.02 -0.03 -0.23   -0.07  0.22 -0.02   -0.20 -0.06  0.03   
      3   C               -0.02 -0.03 -0.24   -0.11  0.14 -0.01    0.14  0.20 -0.04   
      4   O                0.02  0.03  0.22    0.04 -0.16  0.02    0.33 -0.08 -0.02   
      5   H                0.03  0.05  0.36    0.56 -0.12 -0.03   -0.53 -0.06  0.05   
      6   H                0.04  0.06  0.43   -0.05 -0.50  0.07   -0.19  0.15 -0.00   
      7   H               -0.03 -0.05 -0.33   -0.26  0.22 -0.01   -0.54 -0.05  0.05   
      8   H               -0.05 -0.08 -0.60   -0.37  0.14  0.01    0.06  0.21 -0.03   

  Vibration                       10                  11                  12          
  Freq [cm^-1]                 610.7106            929.3720            991.8564       
  Irrep                           A                   A                   A           
  Reduced mass [u]              1.1807              1.5775              1.3391        
  Force const [mDyne/A]         0.2595              0.8028              0.7762        
  Turning point v=0 [a0]        0.4086              0.2866              0.3011        
  RMS dev v=0 [a0 u^1/2]        0.3140              0.2545              0.2464        
  Char temp [K]                878.6766           1337.1594           1427.0605       
  ----------------------------------------------------------------------------------
      1   C                0.00  0.00  0.01    0.11 -0.07  0.00   -0.01 -0.02 -0.16   
      2   C               -0.01 -0.02 -0.12    0.07 -0.06  0.00    0.00  0.01  0.04   
      3   C                0.00  0.00  0.03   -0.09  0.12 -0.01    0.00  0.00  0.03   
      4   O               -0.00 -0.00 -0.00   -0.03 -0.03  0.01   -0.00 -0.00 -0.01   
      5   H               -0.04 -0.07 -0.50   -0.53 -0.06  0.05    0.06  0.09  0.66   
      6   H                0.06  0.09  0.64    0.42  0.56 -0.12    0.06  0.10  0.70   
      7   H                0.03  0.05  0.34   -0.28 -0.06  0.03    0.00  0.00  0.01   
      8   H                0.04  0.06  0.43   -0.24  0.12  0.00   -0.01 -0.02 -0.12   

  Vibration                       13                  14                  15          
  Freq [cm^-1]                1022.8611           1043.5610           1181.2308       
  Irrep                           A                   A                   A           
  Reduced mass [u]              1.6436              1.1685              2.0126        
  Force const [mDyne/A]         1.0131              0.7498              1.6546        
  Turning point v=0 [a0]        0.2676              0.3142              0.2250        
  RMS dev v=0 [a0 u^1/2]        0.2426              0.2402              0.2258        
  Char temp [K]               1471.6694           1501.4519           1699.5281       
  ----------------------------------------------------------------------------------
      1   C               -0.00 -0.01 -0.04   -0.00 -0.00 -0.01   -0.06  0.03  0.00   
      2   C                0.01  0.02  0.15   -0.00 -0.00 -0.02    0.09 -0.16  0.02   
      3   C               -0.02 -0.02 -0.18   -0.01 -0.02 -0.11   -0.12  0.19 -0.02   
      4   O                0.00  0.01  0.04    0.00  0.00  0.03    0.02 -0.03  0.00   
      5   H               -0.01 -0.02 -0.16    0.04  0.07  0.47    0.24  0.02 -0.02   
      6   H                0.02  0.03  0.19   -0.03 -0.04 -0.29   -0.18 -0.22  0.05   
      7   H               -0.05 -0.09 -0.63    0.06  0.09  0.65    0.81 -0.18 -0.04   
      8   H                0.06  0.09  0.67    0.04  0.07  0.49   -0.19  0.20 -0.01   

  Vibration                       16                  17                  18          
  Freq [cm^-1]                1308.9611           1410.0146           1474.9078       
  Irrep                           A                   A                   A           
  Reduced mass [u]              1.4801              1.1960              1.2258        
  Force const [mDyne/A]         1.4942              1.4010              1.5711        
  Turning point v=0 [a0]        0.2493              0.2672              0.2581        
  RMS dev v=0 [a0 u^1/2]        0.2145              0.2066              0.2020        
  Char temp [K]               1883.3036           2028.6971           2122.0639       
  ----------------------------------------------------------------------------------
      1   C               -0.02 -0.13  0.02    0.03  0.01 -0.00   -0.01 -0.02  0.00   
      2   C               -0.05  0.14 -0.02   -0.08 -0.02  0.01   -0.11 -0.02  0.01   
      3   C                0.01 -0.02  0.00   -0.04  0.05 -0.00    0.03 -0.05  0.00   
      4   O                0.01  0.00 -0.00   -0.02 -0.05  0.01    0.04  0.04 -0.01   
      5   H               -0.50 -0.14  0.06    0.33  0.02 -0.03    0.54 -0.01 -0.04   
      6   H                0.08  0.09 -0.02    0.20  0.33 -0.06    0.28  0.53 -0.10   
      7   H                0.79  0.14 -0.09    0.07 -0.03 -0.00    0.20 -0.03 -0.01   
      8   H                0.11 -0.02 -0.01    0.84  0.03 -0.08   -0.52 -0.04  0.05   

  Vibration                       19                  20                  21          
  Freq [cm^-1]                1700.8964           1803.9207           2902.3787       
  Irrep                           A                   A                   A           
  Reduced mass [u]              4.0252              9.4281              1.0841        
  Force const [mDyne/A]         6.8611             18.0763              5.3808        
  Turning point v=0 [a0]        0.1326              0.0841              0.1956        
  RMS dev v=0 [a0 u^1/2]        0.1881              0.1827              0.1440        
  Char temp [K]               2447.2112           2595.4403           4175.8767       
  ----------------------------------------------------------------------------------
      1   C               -0.31 -0.17  0.05    0.03  0.02 -0.01    0.00  0.00 -0.00   
      2   C                0.34  0.14 -0.05   -0.10 -0.04  0.01   -0.00  0.00  0.00   
      3   C                0.03  0.03 -0.01    0.62  0.27 -0.09    0.00 -0.08  0.01   
      4   O               -0.07 -0.03  0.01   -0.40 -0.21  0.06   -0.00 -0.00  0.00   
      5   H                0.54 -0.20 -0.02   -0.06  0.02  0.00    0.01 -0.01  0.00   
      6   H               -0.02  0.50 -0.07    0.00 -0.03  0.00   -0.00  0.01 -0.00   
      7   H               -0.28  0.20 -0.00    0.26 -0.03 -0.02   -0.00 -0.01  0.00   
      8   H                0.14  0.03 -0.02   -0.41  0.25  0.00    0.01  0.99 -0.14   

  Vibration                       22                  23                  24          
  Freq [cm^-1]                3161.7782           3197.7198           3250.3509       
  Irrep                           A                   A                   A           
  Reduced mass [u]              1.0599              1.0941              1.1150        
  Force const [mDyne/A]         6.2430              6.5913              6.9405        
  Turning point v=0 [a0]        0.1895              0.1855              0.1823        
  RMS dev v=0 [a0 u^1/2]        0.1380              0.1372              0.1361        
  Char temp [K]               4549.0948           4600.8068           4676.5312       
  ----------------------------------------------------------------------------------
      1   C               -0.05 -0.05  0.01   -0.00  0.02 -0.00   -0.06  0.07 -0.00   
      2   C                0.01 -0.01  0.00   -0.00 -0.08  0.01    0.00  0.02 -0.00   
      3   C                0.00 -0.00  0.00   -0.00 -0.00  0.00    0.00  0.00 -0.00   
      4   O               -0.00 -0.00  0.00    0.00  0.00 -0.00   -0.00 -0.00  0.00   
      5   H               -0.02  0.81 -0.11    0.00 -0.18  0.02   -0.00 -0.53  0.08   
      6   H                0.50 -0.26 -0.01    0.07 -0.04 -0.00    0.74 -0.36 -0.01   
      7   H               -0.00  0.11 -0.02    0.00  0.97 -0.14   -0.00 -0.16  0.02   
      8   H               -0.00  0.01 -0.00   -0.00  0.00 -0.00    0.00 -0.00  0.00   

  ==> Thermochemistry Components <==

  Entropy, S
    Electronic S            0.000 [cal/(mol K)]        0.000 [J/(mol K)]       0.00000000 [mEh/K] (multiplicity = 1)
    Translational S        37.991 [cal/(mol K)]      158.955 [J/(mol K)]       0.06054261 [mEh/K] (mol. weight = 56.0262 [u], P = 101325.00 [Pa])
    Rotational S           23.355 [cal/(mol K)]       97.716 [J/(mol K)]       0.03721788 [mEh/K] (symmetry no. = 1)
    Vibrational S           5.137 [cal/(mol K)]       21.492 [J/(mol K)]       0.00818584 [mEh/K]
  Total S                  66.482 [cal/(mol K)]      278.162 [J/(mol K)]       0.10594632 [mEh/K]
  Correction S              0.000 [cal/(mol K)]        0.000 [J/(mol K)]       0.00000000 [mEh/K]

  Constant volume heat capacity, Cv
    Electronic Cv           0.000 [cal/(mol K)]        0.000 [J/(mol K)]       0.00000000 [mEh/K]
    Translational Cv        2.981 [cal/(mol K)]       12.472 [J/(mol K)]       0.00475022 [mEh/K]
    Rotational Cv           2.981 [cal/(mol K)]       12.472 [J/(mol K)]       0.00475022 [mEh/K]
    Vibrational Cv          7.750 [cal/(mol K)]       32.424 [J/(mol K)]       0.01234966 [mEh/K]
  Total Cv                 13.711 [cal/(mol K)]       57.367 [J/(mol K)]       0.02185009 [mEh/K]
  Correction Cv             0.000 [cal/(mol K)]        0.000 [J/(mol K)]       0.00000000 [mEh/K]

  Constant pressure heat capacity, Cp
    Electronic Cp           0.000 [cal/(mol K)]        0.000 [J/(mol K)]       0.00000000 [mEh/K]
    Translational Cp        4.968 [cal/(mol K)]       20.786 [J/(mol K)]       0.00791703 [mEh/K]
    Rotational Cp           2.981 [cal/(mol K)]       12.472 [J/(mol K)]       0.00475022 [mEh/K]
    Vibrational Cp          7.750 [cal/(mol K)]       32.424 [J/(mol K)]       0.01234966 [mEh/K]
  Total Cp                 15.698 [cal/(mol K)]       65.682 [J/(mol K)]       0.02501690 [mEh/K]
  Correction Cp             0.000 [cal/(mol K)]        0.000 [J/(mol K)]       0.00000000 [mEh/K]

  ==> Thermochemistry Energy Analysis <==

  Raw electronic energy, E0
  Total E0, Electronic energy at well bottom at 0 [K]                 -191.91194140 [Eh]

  Zero-point energy, ZPE_vib = Sum_i nu_i / 2
    Electronic ZPE          0.000 [kcal/mol]        0.000 [kJ/mol]       0.00000000 [Eh]
    Translational ZPE       0.000 [kcal/mol]        0.000 [kJ/mol]       0.00000000 [Eh]
    Rotational ZPE          0.000 [kcal/mol]        0.000 [kJ/mol]       0.00000000 [Eh]
    Vibrational ZPE        38.679 [kcal/mol]      161.833 [kJ/mol]       0.06163891 [Eh]       13528.177 [cm^-1]
  Correction ZPE           38.679 [kcal/mol]      161.833 [kJ/mol]       0.06163891 [Eh]       13528.177 [cm^-1]
  Total ZPE, Electronic energy at 0 [K]                               -191.85030249 [Eh]

  Thermal Energy, E (includes ZPE)
    Electronic E            0.000 [kcal/mol]        0.000 [kJ/mol]       0.00000000 [Eh]
    Translational E         0.889 [kcal/mol]        3.718 [kJ/mol]       0.00141628 [Eh]
    Rotational E            0.889 [kcal/mol]        3.718 [kJ/mol]       0.00141628 [Eh]
    Vibrational E          39.636 [kcal/mol]      165.839 [kJ/mol]       0.06316460 [Eh]
  Correction E             41.414 [kcal/mol]      173.276 [kJ/mol]       0.06599716 [Eh]
  Total E, Electronic energy at  298.15 [K]                           -191.84594424 [Eh]

  Enthalpy, H_trans = E_trans + k_B * T
    Electronic H            0.000 [kcal/mol]        0.000 [kJ/mol]       0.00000000 [Eh]
    Translational H         1.481 [kcal/mol]        6.197 [kJ/mol]       0.00236046 [Eh]
    Rotational H            0.889 [kcal/mol]        3.718 [kJ/mol]       0.00141628 [Eh]
    Vibrational H          39.636 [kcal/mol]      165.839 [kJ/mol]       0.06316460 [Eh]
  Correction H             42.006 [kcal/mol]      175.754 [kJ/mol]       0.06694134 [Eh]
  Total H, Enthalpy at  298.15 [K]                                    -191.84500006 [Eh]

  Gibbs free energy, G = H - T * S
    Electronic G            0.000 [kcal/mol]        0.000 [kJ/mol]       0.00000000 [Eh]
    Translational G        -9.846 [kcal/mol]      -41.195 [kJ/mol]      -0.01569032 [Eh]
    Rotational G           -6.074 [kcal/mol]      -25.415 [kJ/mol]      -0.00968023 [Eh]
    Vibrational G          38.105 [kcal/mol]      159.431 [kJ/mol]       0.06072399 [Eh]
  Correction G             22.185 [kcal/mol]       92.820 [kJ/mol]       0.03535344 [Eh]
  Total G, Free enthalpy at  298.15 [K]                               -191.87658795 [Eh]

    Psi4 stopped on: Monday, 03 October 2022 09:07PM
    Psi4 wall time for execution: 0:04:56.52

*** Psi4 exiting successfully. Buy a developer a beer!
